16
Lattice="7.70829 0.0 0.0 0.0 6.53521 0.0 0.0 0.0 6.1365" Properties=species:S:1:pos:R:3:spacegroup_kinds:I:1:forces:R:3:magmoms:R:1 spacegroup="P m n 21" unit_cell=conventional occupancy="_JSON {\"0\": {\"Li\": 1.0}, \"1\": {\"Li\": 1.0}, \"2\": {\"P\": 1.0}, \"3\": {\"S\": 0.97}, \"4\": {\"S\": 0.98}, \"5\": {\"S\": 0.99}}" energy=-70.2575279 stress="-0.007535104091065764 -0.0 -0.0 -0.0 -0.0078101938060685504 -0.0 -0.0 -0.0 -0.008039956396048292" dipole="_JSON [[0.0, 0.0, 0.0]]" magmom=0.0 free_energy=-70.2575279 pbc="T T T"
Li       5.72606454       4.45787140       3.06440981        0      -0.00249069       0.00723310       0.00511992       0.00000000
Li       1.98222546       4.45787140       3.06440981        0       0.00249069       0.00723310       0.00511992       0.00000000
Li       5.83637046       2.07733860      -0.00384019        0       0.00249069      -0.00723310       0.00511992       0.00000000
Li       1.87191954       2.07733860      -0.00384019        0      -0.00249069      -0.00723310       0.00511992       0.00000000
Li       3.85414500       5.58272876       6.07832572        1       0.00000000      -0.00447190      -0.00792962       0.00000000
Li       0.00000000       0.95248124       3.01007572        1       0.00000000       0.00447190      -0.00792962       0.00000000
P        3.85414500       1.18297047       3.07611299        2       0.00000000       0.00263892      -0.00252910       0.00000000
P        0.00000000       5.35223953       6.14436299        2       0.00000000      -0.00263892      -0.00252910       0.00000000
S        5.54727823       2.13425343       2.39937739        3       0.00185088       0.00041958       0.00099338       0.00000000
S        2.16101177       2.13425343       2.39937739        3      -0.00185088       0.00041958       0.00099338       0.00000000
S        6.01515677       4.40095657       5.46762739        3      -0.00185088      -0.00041958       0.00099338       0.00000000
S        1.69313323       4.40095657       5.46762739        3       0.00185088      -0.00041958       0.00099338       0.00000000
S        3.85414500       5.78298252       2.39197680        4       0.00000000      -0.00367342      -0.00104529       0.00000000
S        0.00000000       0.75222748       5.46022680        4       0.00000000       0.00367342      -0.00104529       0.00000000
S        3.85414500       1.25479693       5.13044167        5       0.00000000       0.00136753      -0.00072258       0.00000000
S        0.00000000       5.28041307       2.06219167        5       0.00000000      -0.00136753      -0.00072258       0.00000000
